[Molden Format]
made by pyscf v[2.8.0]
[Atoms] (AU)
O   1   8     5.16939602377086    -0.20056521295670     0.12376099848695
C   2   6     2.91441250336299     0.12581514968162    -0.54592738318747
O   3   8     1.28383718342457    -2.13283810547659    -0.67485466613185
C   4   6    -1.26057601543398    -1.42139170863447    -0.11612372704631
C   5   6    -1.14514264313550     1.46285736427344     0.20639407318792
O   6   8     1.41068367003592     1.91800377842318     0.89510063968270
H   7   1    -2.52904343267784    -1.98897667601774    -1.64716857040122
H   8   1    -1.86182679387708    -2.35919938394463     1.62871299484266
H   9   1    -2.38066026654812     2.16339270923946     1.69943724227375
H   10   1    -1.60107833919569     2.43290204761791    -1.56932971198101
[GTO]
1 0
 s    6 1.00
                8588.5  0.0018951500831509
               1297.23    0.01438590063119
               299.296    0.07073200310341
               87.3771    0.24000101053019
               25.6789    0.59479702609709
               3.74004    0.28080201232036
 s    3 1.00
               42.1175    0.11388901243955
               9.62837    0.92081110057574
               2.85332  -0.0032744703576546
 s    1 1.00
              0.905661                   1
 s    1 1.00
              0.255611                   1
 p    3 1.00
               42.1175   0.036511397380305
               9.62837    0.23715298298426
               2.85332    0.81970194118634
 p    1 1.00
              0.905661                   1
 p    1 1.00
              0.255611                   1
 d    1 1.00
                 1.292                   1

2 0
 s    6 1.00
               4563.24  0.0019666502494478
               682.024   0.015230601931833
               154.973   0.076126909655853
               44.4553    0.26080103307972
                13.029    0.61646207819137
               1.82773    0.22100602803216
 s    3 1.00
               20.9642    0.11466008072933
               4.80331    0.91999964774905
               1.45933  -0.0030306821338285
 s    1 1.00
              0.483456                   1
 s    1 1.00
              0.145585                   1
 p    3 1.00
               20.9642   0.040248692672679
               4.80331    0.23759395674575
               1.45933    0.81585385147287
 p    1 1.00
              0.483456                   1
 p    1 1.00
              0.145585                   1
 d    1 1.00
                 0.626                   1

3 0
 s    6 1.00
                8588.5  0.0018951500831509
               1297.23    0.01438590063119
               299.296    0.07073200310341
               87.3771    0.24000101053019
               25.6789    0.59479702609709
               3.74004    0.28080201232036
 s    3 1.00
               42.1175    0.11388901243955
               9.62837    0.92081110057574
               2.85332  -0.0032744703576546
 s    1 1.00
              0.905661                   1
 s    1 1.00
              0.255611                   1
 p    3 1.00
               42.1175   0.036511397380305
               9.62837    0.23715298298426
               2.85332    0.81970194118634
 p    1 1.00
              0.905661                   1
 p    1 1.00
              0.255611                   1
 d    1 1.00
                 1.292                   1

4 0
 s    6 1.00
               4563.24  0.0019666502494478
               682.024   0.015230601931833
               154.973   0.076126909655853
               44.4553    0.26080103307972
                13.029    0.61646207819137
               1.82773    0.22100602803216
 s    3 1.00
               20.9642    0.11466008072933
               4.80331    0.91999964774905
               1.45933  -0.0030306821338285
 s    1 1.00
              0.483456                   1
 s    1 1.00
              0.145585                   1
 p    3 1.00
               20.9642   0.040248692672679
               4.80331    0.23759395674575
               1.45933    0.81585385147287
 p    1 1.00
              0.483456                   1
 p    1 1.00
              0.145585                   1
 d    1 1.00
                 0.626                   1

5 0
 s    6 1.00
               4563.24  0.0019666502494478
               682.024   0.015230601931833
               154.973   0.076126909655853
               44.4553    0.26080103307972
                13.029    0.61646207819137
               1.82773    0.22100602803216
 s    3 1.00
               20.9642    0.11466008072933
               4.80331    0.91999964774905
               1.45933  -0.0030306821338285
 s    1 1.00
              0.483456                   1
 s    1 1.00
              0.145585                   1
 p    3 1.00
               20.9642   0.040248692672679
               4.80331    0.23759395674575
               1.45933    0.81585385147287
 p    1 1.00
              0.483456                   1
 p    1 1.00
              0.145585                   1
 d    1 1.00
                 0.626                   1

6 0
 s    6 1.00
                8588.5  0.0018951500831509
               1297.23    0.01438590063119
               299.296    0.07073200310341
               87.3771    0.24000101053019
               25.6789    0.59479702609709
               3.74004    0.28080201232036
 s    3 1.00
               42.1175    0.11388901243955
               9.62837    0.92081110057574
               2.85332  -0.0032744703576546
 s    1 1.00
              0.905661                   1
 s    1 1.00
              0.255611                   1
 p    3 1.00
               42.1175   0.036511397380305
               9.62837    0.23715298298426
               2.85332    0.81970194118634
 p    1 1.00
              0.905661                   1
 p    1 1.00
              0.255611                   1
 d    1 1.00
                 1.292                   1

7 0
 s    3 1.00
                33.865   0.025493814540787
               5.09479    0.19037310858221
               1.15879    0.85216148604332
 s    1 1.00
               0.32584                   1
 s    1 1.00
              0.102741                   1

8 0
 s    3 1.00
                33.865   0.025493814540787
               5.09479    0.19037310858221
               1.15879    0.85216148604332
 s    1 1.00
               0.32584                   1
 s    1 1.00
              0.102741                   1

9 0
 s    3 1.00
                33.865   0.025493814540787
               5.09479    0.19037310858221
               1.15879    0.85216148604332
 s    1 1.00
               0.32584                   1
 s    1 1.00
              0.102741                   1

10 0
 s    3 1.00
                33.865   0.025493814540787
               5.09479    0.19037310858221
               1.15879    0.85216148604332
 s    1 1.00
               0.32584                   1
 s    1 1.00
              0.102741                   1

[5d]
[7f]
[9g]

[MO]
 Sym= A
 Ene=    -19.08601611
 Spin= Alpha
 Occup=    1.00000
   1    5.5280036132782e-06
   2    -9.8129640137128e-06
   3    0.00021701378570028
   4    -0.0014522810431429
   5    -3.3267049394026e-05
   6    6.5192482984148e-06
   7    -4.9024527515895e-05
   8    0.00013086750934592
   9    -2.5421651642819e-05
  10    0.00018249102781214
  11    0.00064282294231318
  12    -0.00020899334368231
  13    -0.0004400151692787
  14    5.2597425434826e-05
  15    1.9249260645441e-07
  16    3.1362263062255e-05
  17    -6.6268124174896e-05
  18    3.5438848209074e-05
  19    1.4910099820373e-05
  20    -5.8721370294616e-05
  21    0.00013083607355868
  22    0.0041774710887109
  23    -7.4335644355181e-05
  24    9.8721451936557e-05
  25    4.4894990772183e-05
  26    -5.6865556661576e-05
  27    0.00016672958118367
  28    0.0002665212573003
  29    -0.00085775676178283
  30    0.0005994688884763
  31    0.0017523175301383
  32    -0.00016197853312606
  33    6.5982359726499e-06
  34    4.0696234280736e-06
  35    0.00019484251625403
  36    -1.1405343633661e-05
  37    -0.00038572111212768
  38    -0.00031727435360974
  39    -3.7227884589612e-05
  40    -0.00032822347716896
  41    -1.595383328991e-05
  42    2.8652549234206e-05
  43    -7.7087726288381e-06
  44    6.6419975135546e-05
  45    -0.00011233072920338
  46    3.1452957573253e-05
  47    -0.0004407578782412
  48    -0.00022099665003635
  49    -0.00034370995893041
  50    1.2239165516951e-05
  51    -1.6084524710417e-05
  52    -8.9291864973322e-06
  53    1.2122733100605e-05
  54    -1.8183841466503e-05
  55    -2.5563972778573e-06
  56    1.0640198260454e-05
  57    0.00013457392662494
  58    -0.0029591507723942
  59    -4.6865079951273e-05
  60    5.3437688090282e-05
  61    2.7887585631466e-05
  62    6.8969455411271e-05
  63    -0.00033316306896523
  64    -0.00013194353967431
  65    -0.00052459319547312
  66    -0.0010742722233834
  67    0.00038167291124865
  68    -5.3289328226524e-06
  69    8.1845014079314e-05
  70    -2.9121557580567e-05
  71    0.00018349087772463
  72    -1.7639735891109e-05
  73    3.3496197396955e-06
  74    -1.3802059393747e-06
  75    -0.0002702401349507
  76    0.0060058427637187
  77    9.4523098765894e-05
  78    8.9583631588685e-05
  79    6.4014748729214e-05
  80    0.00044128608044906
  81    -0.00014094781637222
  82    -1.2004065190418e-05
  83    0.0014615174604146
  84    -0.00078031919801416
  85    0.00025245744235012
  86    -9.2153365956842e-05
  87    -3.6522003450509e-05
  88    -4.6057050795844e-05
  89    -8.8163657518198e-05
  90    -0.0001342370084205
  91       0.5512824902933
  92      0.46979632480083
  93     0.013573640767716
  94     -0.01051557144272
  95    -0.00057099020812094
  96    -0.0006852340046388
  97    -0.00071341016956411
  98    1.4783531812954e-05
  99    -0.00014138802774521
 100    -5.7899253373604e-05
 101    0.00078702068042516
 102    0.0017804995568491
 103    0.0013244235052139
 104    7.7405846907498e-05
 105    -2.8395184875023e-05
 106    -8.5617465245947e-05
 107    -3.9438957115039e-05
 108    1.4005435365035e-05
 109    -6.5636932237626e-05
 110    0.00034935282285117
 111    0.00016623342810748
 112    4.4745002124504e-05
 113    8.5894977980985e-05
 114    -0.00036177922397276
 115    8.0947660884476e-05
 116    -0.00083448598629713
 117    -6.8577739211401e-05
 118    2.123720997922e-05
 119    -0.00078052907348642
 120    -4.9641775996855e-05
 Sym= A
 Ene=    -19.07921387
 Spin= Alpha
 Occup=    1.00000
   1    -2.6109959423491e-05
   2    -1.3049716710717e-05
   3    -3.6762684914298e-06
   4    -0.00049575466577153
   5    -2.7037282529924e-05
   6    2.5256146163462e-05
   7    -3.6582293247822e-05
   8    0.00011811593873314
   9    -9.6386316217465e-05
  10    0.00014187695735963
  11    0.00044564797540176
  12    0.00039479237599403
  13    -0.00027363230529935
  14    1.4932666979274e-05
  15    -1.4264800537182e-05
  16    -1.0814054231825e-05
  17    -7.4702115485806e-05
  18    -1.7866064220983e-05
  19    1.1118638230298e-05
  20    -4.1261197576225e-05
  21    -0.00013760996350417
  22    0.0045910569634396
  23    -3.1944115445252e-05
  24    -6.1671045069886e-05
  25    -6.0482379211629e-05
  26    -0.00020773416902591
  27    -0.00040920934473868
  28    0.00018277497841043
  29    -0.0020845308793976
  30    -0.0012198052709814
  31    0.00066297739182564
  32    -0.00019802282556331
  33    -9.4965613509119e-06
  34    5.7466594561135e-05
  35    0.00022100988411754
  36    4.4558072043869e-05
  37      0.55128503575372
  38      0.46978288981372
  39     0.013722021300932
  40    -0.011222710598307
  41    -0.00055345509800348
  42    0.00094592989659534
  43    0.00022266384945358
  44    -1.4956051053057e-05
  45    0.00013380305678006
  46    3.7523758425341e-05
  47    0.00096871308354245
  48    -0.0024253980924361
  49    -0.00066733585505868
  50    0.00012921417431451
  51    2.3622963002298e-05
  52    -7.9690932211717e-05
  53    -2.4780888073239e-05
  54    -8.5198640433683e-06
  55    4.8871836908863e-06
  56    -1.1068674215667e-05
  57    -0.00033179542887066
  58    0.0073250779453071
  59    4.2828127812554e-05
  60    -0.00012045064902126
  61    -2.9629566495358e-05
  62    0.00062662353158242
  63    0.00017776085274656
  64    -7.0247542146693e-05
  65    0.0016991533896518
  66    0.0010764041656497
  67    -0.00043162816847585
  68    -0.00011637652531837
  69    1.5185684312517e-05
  70    -4.4963528450913e-05
  71    -2.6048254413131e-05
  72    0.00018102914975587
  73    2.3770103664338e-06
  74    -1.4237401695398e-05
  75    0.00044766076572191
  76    -0.0047678934219499
  77    -3.828369935806e-05
  78    -5.0984603111514e-05
  79    -1.5257176001773e-05
  80    8.2848574855626e-05
  81    0.00030833994351873
  82    6.3267715872076e-05
  83    -0.0011799979175517
  84     0.001553964811333
  85    0.0007739747388438
  86    3.9844165666474e-05
  87    -3.6115890764978e-05
  88    -1.5507324594975e-05
  89    0.00017830322228788
  90    -1.8210740135252e-06
  91    0.00038844530183351
  92    0.00034322808116947
  93    -3.1473273642711e-05
  94    -0.00027538980643266
  95    -1.6562336805873e-05
  96    2.3922039186852e-07
  97    -5.0321020779498e-05
  98    6.6885146365779e-05
  99    1.2531783323012e-06
 100    0.00018172009625724
 101    -0.00063648938249491
 102    0.00059409580522262
 103    -0.00021555738300637
 104    9.7506602694184e-06
 105    -4.4284962313432e-06
 106    -1.7608906374975e-05
 107    4.1112613825009e-05
 108    3.877620489715e-05
 109    7.5367062449103e-05
 110    -0.00095539481364775
 111    -0.00010280433876651
 112    3.5902846358319e-05
 113    -0.00077932470254521
 114    -7.1404275600133e-05
 115    -2.263589637375e-05
 116    0.00012689994834056
 117    -0.00023173501463191
 118    -3.8421546966281e-05
 119    0.00071918441151241
 120    -0.00016179828924299
 Sym= A
 Ene=    -19.00915452
 Spin= Alpha
 Occup=    1.00000
   1      0.55121803245299
   2      0.46979744684821
   3     0.013616623361052
   4    -0.009707289322117
   5    -0.00095065761358391
   6    0.00014216761619505
   7    -0.00028006011950047
   8    -0.00072288721474396
   9    9.3418842376741e-05
  10    -0.00022785330190691
  11    0.0023323731975734
  12    -0.00022433476504327
  13    0.00057015971657045
  14    -8.5624343853906e-06
  15    0.00011605402349092
  16    -6.4966159172617e-05
  17    0.00014904129955188
  18    -5.6450691400986e-05
  19    -1.9432659530263e-05
  20    8.0821515976572e-05
  21    0.00026114620951216
  22    0.0048133850135635
  23    0.00040684631970753
  24    -6.9216370770698e-05
  25    5.183315352849e-05
  26    -0.00091124018679072
  27    0.00020079577450497
  28    -3.1495307552795e-05
  29    0.0039614837655999
  30     -0.00102971345358
  31    0.0016916096517879
  32    0.00016387576152927
  33    -0.00033172572646562
  34    0.00018588448311986
  35    -0.00065702410237993
  36    0.00012235554731825
  37    2.8710139109671e-05
  38    3.1838270422849e-05
  39    2.1430635237792e-05
  40    -0.00020987405197481
  41    1.7599986545387e-05
  42    4.8660935119762e-05
  43    -1.787508217577e-05
  44    -2.0586138373923e-05
  45    -0.00016558643422144
  46    7.1962031842051e-05
  47    -0.00092866511662709
  48    8.112708187089e-05
  49    -0.00035307265087585
  50    3.269176213273e-05
  51    -1.3297624424127e-05
  52    -4.9813043238353e-05
  53    -2.6819387631502e-05
  54    -0.00012417438225529
  55    -1.3968154580928e-06
  56    6.7560456528777e-06
  57    3.1487442193491e-05
  58    -0.0018657023721874
  59    3.6108814571922e-06
  60    1.1625596914358e-05
  61    -4.1766212594766e-05
  62    -6.1359512958798e-05
  63    -5.9421022830194e-05
  64    0.00013510863308997
  65    -0.00029202365531805
  66    -0.00056087913722709
  67    -5.3812390016571e-05
  68    1.2711296861195e-05
  69    2.5118699810466e-05
  70    2.6648137307184e-07
  71    5.1913714477541e-05
  72    1.2723246182091e-05
  73    -7.0333381036579e-06
  74    3.4990556015942e-05
  75    -0.00049559487692187
  76    0.0026302253875571
  77    -2.4758816851342e-05
  78    1.3262014762899e-05
  79    -3.7636056034092e-05
  80    4.2615277234803e-05
  81    -1.158535693417e-05
  82    0.00013484126934336
  83    0.0011435595946684
  84    -0.0010283868440195
  85    -0.0011742124010488
  86    -8.0227166617747e-05
  87    1.4323672552736e-05
  88    -4.3666934067395e-05
  89    4.4481439031113e-05
  90    -8.4771298006882e-05
  91    -4.2143809514462e-06
  92    -2.2190562682848e-05
  93    0.00030965352148167
  94    -0.0016186288428324
  95    2.8382380403994e-05
  96    -3.8889121808567e-05
  97    -4.6964275350066e-05
  98    -7.4682593786712e-05
  99    0.00011304113722529
 100    0.00015284580990225
 101    -0.00031048178855222
 102    0.00041663675666284
 103    3.2076276636331e-05
 104    6.379467846252e-05
 105    5.7115364924329e-05
 106    -3.9238080013121e-05
 107    -2.411217986237e-05
 108    9.5979773358039e-05
 109    3.1385477068008e-05
 110    4.0394982807135e-05
 111    -5.0558210281632e-05
 112    -6.4615666778126e-05
 113    0.00028024682413237
 114    -5.4918877272424e-05
 115    -4.6795734669078e-05
 116    0.00023855754838922
 117    0.00047017331313298
 118     0.000106053881762
 119    -0.00074197969604326
 120    3.296785955233e-05
 Sym= A
 Ene=    -10.21990306
 Spin= Alpha
 Occup=    1.00000
   1    -6.1550693168367e-05
   2    -4.6773277759328e-05
   3    0.00064178907456661
   4    -0.0060390103200099
   5    -0.00053161240971151
   6    6.2061928664858e-05
   7    -0.00012483914643351
   8    0.0016542361377476
   9    -0.00017198440507336
  10    0.00033991274880964
  11    0.0025541601300642
  12    -0.00054496971549301
  13    0.0011795066489479
  14    0.00041884682208751
  15    -0.00054996288889127
  16    8.2989745050835e-05
  17    -0.00086945675302126
  18    0.0002640332387558
  19       0.5630398503273
  20      0.46370931216817
  21     0.015641263355743
  22    -0.0021703685646713
  23    -0.00067733376127326
  24    -0.00034313771297136
  25    0.00085253519279043
  26    0.0018686691671324
  27    -0.00010942511486777
  28    0.0007564705532642
  29    0.0039898385244846
  30    -0.00026999510327793
  31    0.00039685791899608
  32    -0.00066132939791892
  33    0.00077438059153884
  34    -0.00011899737543376
  35    0.0013235661075487
  36    -0.00048423746616094
  37    -1.6635305830963e-05
  38    -5.5645366835035e-05
  39    0.00051553406352496
  40    -0.00056584622160907
  41    5.983361538864e-05
  42    0.00010031466232884
  43    -2.0675777536484e-05
  44    2.499378461782e-05
  45    3.7185756945594e-05
  46    0.00010830544257571
  47    -3.8659988469169e-05
  48    -0.00064678904314606
  49    -0.00053060626565596
  50    0.00023555620548406
  51    4.1943483443181e-05
  52    -2.6469700890501e-05
  53    8.2084511757795e-05
  54    -0.00019802984450123
  55    -6.7933343514533e-05
  56    -3.6727190416856e-05
  57    -0.00043959508045246
  58    0.0014027228285061
  59    -6.9361713930838e-05
  60    -1.3106675621332e-05
  61    2.1222693626984e-05
  62    0.00019217334444153
  63    -8.2827429022088e-05
  64    -0.00010065999778514
  65    0.00089504977940371
  66    0.00044563277085492
  67    0.0013522726689942
  68    -0.00016350011511561
  69    -9.8219893241741e-05
  70    3.3797805234161e-05
  71    0.00015079658096823
  72    0.0001461084298399
  73    -5.3515595351115e-05
  74    -3.9018086182589e-05
  75    -0.00034120519909447
  76    0.0014541764156606
  77    -8.1949244847107e-05
  78    -2.3760587176578e-05
  79    -2.3423803675322e-05
  80    0.00033851107692285
  81    0.00019807344021198
  82    0.00012337933069025
  83    0.0017672872777514
  84    -0.00036999897787302
  85    -0.0022597459398222
  86    -0.00015928947655731
  87    2.7849033068298e-06
  88    -0.00010143918894272
  89    0.00025815210653447
  90    -9.9230991092629e-05
  91    -2.0146764382743e-05
  92    -7.383209272219e-05
  93    0.00074886706665509
  94    -0.0014321201681611
  95    7.3380219467799e-05
  96    -0.00010107034118547
  97    -7.0238760078981e-05
  98    -2.66625775687e-05
  99    2.0025683398801e-05
 100    -5.860776051852e-05
 101    9.9490039535246e-05
 102    0.00071251058175814
 103    0.0010531147633878
 104    4.2325118241983e-05
 105    0.0001002284994143
 106    -0.00032226565195593
 107    -2.5302565720597e-05
 108    0.00018629644766362
 109    3.0471964085215e-05
 110    0.00014257768931784
 111    0.00046339348148102
 112    0.00012769660052984
 113    -0.00072486679690417
 114    -0.00013741895595492
 115    -8.9476346817622e-05
 116    0.00081375741595913
 117    0.00061421737940998
 118    0.00014420205091137
 119    -0.0011475202257626
 120    -9.2656723929417e-06
 Sym= A
 Ene=    -10.19169257
 Spin= Alpha
 Occup=    1.00000
   1    3.1056229895728e-06
   2    2.4543374102531e-05
   3    -0.00024737493655618
   4    0.0012211770396226
   5    2.2336875579376e-05
   6    -6.3404331468931e-06
   7    -3.6693748670081e-05
   8    -7.4928121009649e-05
   9    2.2709237088746e-05
  10    0.00014989225475225
  11    1.0412322072568e-05
  12    -3.552099383556e-05
  13    -0.00048675238312081
  14    1.377450061525e-06
  15    -5.1363288633794e-07
  16    2.8173049110035e-06
  17    1.7417165080114e-06
  18    -4.3319741949296e-06
  19    5.4375250397283e-05
  20    5.400162587884e-05
  21    -0.00046945041858893
  22    0.0029419328990254
  23    0.00013446119112409
  24    3.3145349716683e-06
  25    -3.5642104996028e-05
  26    -0.00046154850877255
  27    7.7407970771852e-06
  28    0.00017043726212675
  29    -0.0029981888601961
  30    0.00062338172928093
  31    0.00043313228764692
  32    -0.00022643365221223
  33    -0.00014650180517597
  34    9.3419015316726e-05
  35    0.00018136677288494
  36    -6.3255858378663e-05
  37    -1.3771203038938e-06
  38    -1.6943117929906e-05
  39    0.00035147932479234
  40    -0.0023382742904479
  41    -5.38110935116e-05
  42    -1.3929661264453e-06
  43    1.8885436791489e-05
  44    0.00016203414454157
  45    3.4261301784267e-06
  46    -6.2979063200488e-05
  47    0.00048861444566945
  48    -0.0008312659610099
  49    -0.00013020570152604
  50    5.886863598499e-05
  51    4.9960626236612e-05
  52    -5.1645220670665e-06
  53    -0.00014109274520743
  54    2.8701066105654e-05
  55     0.032961045044219
  56     0.027275283742339
  57    0.00048564180924863
  58    0.0056184369450768
  59    -4.8303331294048e-05
  60    0.00052614623227089
  61    8.3617370243919e-05
  62    0.00038286854781569
  63    -0.0013585977455157
  64    -0.00027213372473056
  65    0.00012674194092444
  66    0.0026649940572192
  67    4.9362910721909e-05
  68    0.00049442264561677
  69    -1.9055357064821e-05
  70    -0.00024045847450875
  71    0.0010050783368385
  72    -0.0001296591948831
  73      0.56199150346577
  74      0.46294175444273
  75     0.016686873720218
  76    -0.016234886286985
  77    0.00047025043916153
  78    0.00032856216599393
  79    0.00021298084693533
  80    0.00037618179747485
  81    -0.0011896937202187
  82    -0.00024062709457135
  83    -0.00092172031417313
  84    0.0025303610401957
  85    0.0015489870898797
  86    -0.00024302699766523
  87     1.97143344638e-05
  88    8.6146225544946e-05
  89    -0.00015079276394577
  90    9.0782781138504e-05
  91    -1.7885859892042e-05
  92    -3.7359971417924e-05
  93    0.00045459545587536
  94    -0.00058227797501476
  95    -0.00023914148609649
  96    -3.9980200946869e-05
  97    -5.7363248647349e-05
  98    0.00038237192826992
  99    1.1918132394824e-05
 100    4.3150828268562e-05
 101    -0.00054104679454672
 102    0.00086144657592774
 103    0.00060445273363054
 104    0.00022157128117065
 105    -0.00018071283485136
 106    -0.00016481652666795
 107    -0.00032124385274832
 108    -0.00011891014958032
 109    -0.00015679142156452
 110    -0.00055170432336079
 111    0.00021988553265821
 112    -0.00013230400011766
 113    -0.00053178529222375
 114    0.00036417056605917
 115    -0.0001320777034068
 116    0.00046206960602223
 117    0.0013163204686816
 118    -0.00031902905429629
 119    0.0016066367654375
 120    0.0018606313831175
 Sym= A
 Ene=    -10.19002863
 Spin= Alpha
 Occup=    1.00000
   1    2.6707013672978e-07
   2    2.8106167028224e-06
   3    -2.2239976242759e-05
   4    0.00018885029851794
   5    1.7006725788248e-05
   6    2.4772887795455e-05
   7    -3.3463896383503e-05
   8    -6.4551010555057e-05
   9    -9.8336318757184e-05
  10    0.00013287699910927
  11    0.00029597579616714
  12    0.00023495637453089
  13    -0.00035256720499277
  14    6.626552879923e-06
  15    -5.4089500815381e-06
  16    4.103511769568e-06
  17    -1.4441571315659e-05
  18    9.6720238757346e-06
  19    6.097764552226e-05
  20    6.8008214361277e-05
  21    -0.00044219066259109
  22    0.0026962061202216
  23    6.0336296911533e-05
  24    3.2150234605108e-05
  25    -1.9470366922343e-05
  26    -0.00013586398088416
  27    -0.00015657737655254
  28    5.4842794895131e-05
  29    -0.0019430054253205
  30    -0.00044902724834943
  31    0.0005688211003915
  32    -0.00016923915842492
  33    -9.9408965573552e-05
  34    5.1929220265813e-05
  35    0.0001537031982057
  36    0.00015130442274996
  37    -1.7890129344554e-05
  38    -4.2286746908998e-05
  39    0.00047451534375244
  40    -0.00070229068517627
  41    -0.00021572990884441
  42    6.1097740944277e-05
  43    5.1427319741527e-05
  44    0.00031132991517856
  45    -3.260355171476e-05
  46    -7.1413919582615e-05
  47    -0.00033272290988976
  48    -0.00090847992171407
  49    -7.3137379737857e-05
  50    0.0002854036441015
  51    0.00015569242428064
  52    -8.4026728519868e-05
  53    -0.00024866718180507
  54    0.00018056027529579
  55      0.56199747161488
  56      0.46296535829007
  57     0.016271411116255
  58    -0.014180808597665
  59    0.00047741257279755
  60    -0.00046769262531071
  61    -0.00016757473900319
  62    0.00029911293896559
  63    0.0013862395235748
  64    0.00016143864126321
  65    2.0546699173495e-05
  66    -0.0017553450704497
  67    -0.00077257214574352
  68    -0.00034002235116309
  69    -1.1589794522859e-05
  70    9.7994006711473e-05
  71    -0.00032591718437187
  72    4.8520710817541e-07
  73    -0.033008069132688
  74    -0.027069082207359
  75    -0.0012252121944345
  76    0.0046114909703125
  77    -9.815520331257e-05
  78    -0.00058876063511006
  79    -7.3113847783855e-05
  80    0.00024885079941286
  81    0.0015631675787096
  82    0.00016423719523834
  83    -0.00069227165404032
  84    -0.0020685787357412
  85    0.0005569674033649
  86    0.00059441116716533
  87    6.8107746688406e-06
  88    -0.0002277088591639
  89    0.0010336973521149
  90    -1.9627175735762e-05
  91    2.7996407383105e-06
  92    6.6810194379649e-06
  93    7.4732640150209e-05
  94    -0.0013807133143849
  95    -3.4426495641097e-05
  96    1.3646926202678e-05
  97    -1.2880191226886e-05
  98    0.00017236232338032
  99    -8.1220439285771e-06
 100    6.6607046301359e-05
 101    3.5860925368434e-05
 102    0.00034734066125823
 103    0.00012269572430422
 104    -9.9269151176101e-06
 105    -3.347574009274e-05
 106    -5.6189106251207e-06
 107    -0.00011491883115244
 108    4.200383782833e-05
 109    -0.00016885360400227
 110    0.00067567139174553
 111    0.0017065509922517
 112    -0.00020664773845657
 113    0.0010177473928728
 114    0.0019484762130119
 115    -0.00010025139450944
 116    -0.00071780435602645
 117    -0.00019472139172061
 118    -0.00018410790242124
 119    -0.000132609596454
 120    0.0002487231274944
 Sym= A
 Ene=    -1.042587062
 Spin= Alpha
 Occup=    1.00000
   1    -0.031073703945071
   2     -0.04959147646029
   3      0.14088198189843
   4      0.10554790791848
   5    -0.023600217670127
   6    0.0029702071339023
   7    -0.0048900896407452
   8    -0.038376496477474
   9    0.0049409877881185
  10    -0.0082335462240084
  11      -0.0194684626308
  12    0.0008914234066136
  13    0.00090967440215608
  14    -0.0027275405432733
  15    0.0016483082274626
  16    -0.00043224205264758
  17    0.0053705888006529
  18    -0.0012011707032554
  19    -0.051228617709903
  20    -0.079215179373597
  21      0.21146573703244
  22     0.014893053858109
  23    -0.010531459271927
  24    -0.0033357047574128
  25     0.021089501532409
  26    -0.029916241510792
  27    -0.0041254575962399
  28      0.02947926749516
  29      0.00332924877236
  30    0.0040143431904665
  31    -0.012463941983984
  32    -0.0082599103062911
  33    -0.0045682319201205
  34     0.005563872650353
  35      0.00479301166324
  36    -0.0007092421527795
  37    -0.062949656022357
  38     -0.10065474833248
  39       0.2886204344417
  40      0.22160091920224
  41    -0.0083176389325683
  42     0.029392542444036
  43    0.0074575897013859
  44     -0.01338087632584
  45     0.048474868365665
  46     0.011549137669945
  47    -0.0045039137444964
  48     0.029271601463385
  49     0.010795234838249
  50    -0.0058353605376714
  51    -0.0015330608419938
  52    0.0019969862565037
  53    0.00013492696898993
  54    0.00099474670786911
  55    -0.027374534078328
  56    -0.042609485814686
  57      0.11072080716381
  58     0.031872382958452
  59     0.026900230633281
  60    0.0029805937522028
  61    -0.0033142428779458
  62     0.040118861048102
  63    0.0069066386988015
  64    -0.0045449795810931
  65    0.0019407248000071
  66    0.00074168694765613
  67    -0.001401045778538
  68    -0.0064973623343642
  69    -0.0034468053959998
  70    0.0013540552000152
  71     0.006602626070244
  72    -0.00097400401395891
  73    -0.030820525323446
  74    -0.047957533487841
  75      0.12424418026183
  76     0.039840957571481
  77     0.031078029751321
  78    -0.0038912604220565
  79    0.0049893165659872
  80     0.047227867327921
  81    -0.0070917471049104
  82    0.0066250770519588
  83    0.0028169338461208
  84    -0.0016373709842081